 Q-Chem 4.3, Q-Chem, Inc., Pleasanton, CA (2015)
 Q-Chem 4.3.0 for Intel X86 EM64T Linux

User input:
--------------------------------------------------------------
$rem
 method = hf
 basis = sto-3g
 scf_convergence = 10
 thresh = 14
 scf_final_print = 3
 print_general_basis = true
 iprint = 1000
 symmetry = false
 sym_ignore = true
 ! save_ao_integrals = 1
 aoints_debug_print = 4
$end

$molecule
0 1
Li 0.0000 0.0000 0.0000
H  0.0000 0.0000 1.5949
$end
--------------------------------------------------------------

             Standard Nuclear Orientation (Angstroms)
    I     Atom           X                Y                Z
 ----------------------------------------------------------------
    1      Li      0.0000000000     0.0000000000     0.0000000000
    2      H       0.0000000000     0.0000000000     1.5949000000
 ----------------------------------------------------------------

   15      -7.8620269586      4.90E-11 Convergence criterion met
 Total energy in the final basis set = -7.8620269586

                    Orbital Energies (a.u.)
 --------------------------------------------------------------

 Alpha MOs
 -- Occupied --
 -2.349  -0.286

          Ground-State Mulliken Net Atomic Charges

     Atom                 Charge (a.u.)
  ----------------------------------------
      1 Li                   -0.016117
      2 H                     0.016117
  ----------------------------------------
  Sum of atomic charges =     0.000000

                    Cartesian Multipole Moments
 -----------------------------------------------------------------
    Charge (ESU x 10^10)
                 0.0000
    Dipole Moment (Debye)
         X       0.0000      Y       0.0000      Z      -4.8575
       Tot       4.8575
    Quadrupole Moments (Debye-Ang)
        XX      -5.2782     XY      -0.0000     YY      -5.2782
        XZ       0.0000     YZ       0.0000     ZZ      -8.8300

 Total job time:  0.27s(wall), 0.26s(cpu)
        *  Thank you very much for using Q-Chem.  Have a nice day.  *
